# ODT 1.0
# Table Start
# Title: mmArchive Data Table, Wed Oct 14 15:58:28 EDT 2020
# Columns: {Oxs_CGEvolve:evolver:Max mxHxm} {Oxs_CGEvolve:evolver:Total energy} {Oxs_CGEvolve:evolver:Delta E} {Oxs_CGEvolve:evolver:Bracket count} {Oxs_CGEvolve:evolver:Line min count} {Oxs_CGEvolve:evolver:Conjugate cycle count} {Oxs_CGEvolve:evolver:Cycle count} {Oxs_CGEvolve:evolver:Cycle sub count} {Oxs_CGEvolve:evolver:Energy calc count} Oxs_UniformExchange:exchange:Energy {Oxs_UniformExchange:exchange:Max Spin Ang} {Oxs_UniformExchange:exchange:Stage Max Spin Ang} {Oxs_UniformExchange:exchange:Run Max Spin Ang} Oxs_DMI_T:dmi:Energy Oxs_FixedZeeman:zeeman:Energy Oxs_UniaxialAnisotropy:uniaxialanisotropy:Energy Oxs_MinDriver::Iteration {Oxs_MinDriver::Stage iteration} Oxs_MinDriver::Stage Oxs_MinDriver::mx    Oxs_MinDriver::my    Oxs_MinDriver::mz   
# Units:                 A/m                                 J                                J                                 {}                                   {}                                        {}                                      {}                                   {}                                      {}                                     J                                      deg                                            deg                                              deg                                J                         J                                      J                                    {}                           {}                         {}                 {}                   {}                   {}           
                  0.085252372099799995              -2.87031757596e-15                 1.9721522630500002e-30               191864                               79053                                     1052                                    154425                               27                                      270918                                1.57327103015e-15                       131.214415879                                  180                                              180                               -3.53945876661e-15       -9.0412983949800007e-16                     0                                    226330                       226330                     0                   -0.00060697653398300003  0.00032255802258999999  0.423389064112     
# Table End
