# ODT 1.0
# Table Start
# Title: mmArchive Data Table, Wed Oct 14 16:34:18 EDT 2020
# Columns: {Oxs_CGEvolve:evolver:Max mxHxm} {Oxs_CGEvolve:evolver:Total energy} {Oxs_CGEvolve:evolver:Delta E} {Oxs_CGEvolve:evolver:Bracket count} {Oxs_CGEvolve:evolver:Line min count} {Oxs_CGEvolve:evolver:Conjugate cycle count} {Oxs_CGEvolve:evolver:Cycle count} {Oxs_CGEvolve:evolver:Cycle sub count} {Oxs_CGEvolve:evolver:Energy calc count} Oxs_UniformExchange:exchange:Energy {Oxs_UniformExchange:exchange:Max Spin Ang} {Oxs_UniformExchange:exchange:Stage Max Spin Ang} {Oxs_UniformExchange:exchange:Run Max Spin Ang} Oxs_DMI_T:dmi:Energy Oxs_FixedZeeman:zeeman:Energy Oxs_UniaxialAnisotropy:uniaxialanisotropy:Energy Oxs_MinDriver::Iteration {Oxs_MinDriver::Stage iteration} Oxs_MinDriver::Stage Oxs_MinDriver::mx    Oxs_MinDriver::my    Oxs_MinDriver::mz   
# Units:                 A/m                                 J                                J                                 {}                                   {}                                        {}                                      {}                                   {}                                      {}                                     J                                      deg                                            deg                                              deg                                J                         J                                      J                                    {}                           {}                         {}                 {}                   {}                   {}           
                  0.091646753257699998              -1.33940237045e-14                -6.3108872417700002e-30               51614                                20883                                     512                                     47406                                78                                      72498                                 1.2282982303e-14                        138.18868857199999                             180                                              180                               -2.4075410617799999e-14     -1.60159538975e-15                       0                                    68158                        68158                      0                    0.026481693706900001 -0.030759657076100001  0.25000021882099999
# Table End
