# OOMMF OVF 2.0
# 
# Segment count: 1
# 
# Begin: Segment
# Begin: Header
# 
# Title: Field
# Desc: File generated by Field class
# meshunit: m
# meshtype: rectangular
# xbase: -1.2250000000000001e-06
# ybase: -1.2250000000000001e-06
# zbase: 5e-10
# xnodes: 50
# ynodes: 50
# znodes: 12
# xstepsize: 5e-08
# ystepsize: 5e-08
# zstepsize: 1e-09
# xmin: -1.25e-06
# ymin: -1.25e-06
# zmin: 0.0
# xmax: 1.25e-06
# ymax: 1.25e-06
# zmax: 1.2e-08
# valuedim: 3
# valuelabels: field_x field_y field_z
# valueunits: None None None
# 
# End: Header
# 
# Begin: Data Text
 358153.341313749 99706.6776194738 96128.8850652276
 -6455.62465527832 224587.361022339 311407.838981827
 -201199.231537183 87335.3503009033 315194.235062549
 -206523.161356598 -45336.6684630249 320544.490384643
 72930.4871637203 -330691.054190017 181054.05469295
 293700.560185918 -247203.917861162 -9284.60772300534
 378906.658397903 59285.698326966 19260.0673835479
 196772.894597739 215482.580678605 249607.06195081
 -177392.005673327 134409.965147563 312924.971186745
 -229276.428944638 84913.8028776168 296104.652464725
 -181339.822516964 -86665.7499923369 327201.645087218
 88024.0930734678 -350200.707343844 130641.584552794
 304284.324444566 -230573.420126392 -41266.7884446152
 374341.213433435 84267.8559211084 14952.7383325914
 241893.743142664 164099.803507564 249027.451332599
 -190949.458154689 -78555.8375329351 323764.242651856
 -308143.502870362 -201175.120634063 109691.168635645
 -320536.304520578 -101225.73667847 -185649.744729672
 172649.0824706 309993.3101998 -146807.499649816
 214336.249766742 292127.500619762 127190.783540238
 -43758.1976633603 187558.22278267 332209.471875593
 -223955.74537163 50933.9038901414 307742.687239758
 -226174.903594143 -35611.3634631469 308273.812991756
 45564.0903630569 -331694.773148972 188038.536303172
 292609.922475964 -246958.987608099 -29097.9674237417
 369877.505397811 102658.003709597 10390.6340062997
 82837.6117571668 251456.678180803 278142.893270069
 -176091.466771245 103084.657336071 325301.934750251
 -200820.683735481 -41979.2942827301 324599.432894665
 59254.6127259522 -333614.236186742 180683.237419065
 290350.359287321 -249367.798949371 -31118.6392515822
 371413.049901409 97412.3887538347 4378.68475747061
 105934.833602462 252019.689190097 269666.251670738
 -183942.008266333 113255.925292819 317481.389975878
 -212801.549374371 840.313529810054 319641.66570871
 10451.4037785336 -304409.542174937 233840.969019339
 272021.117146212 -271009.393573243 3797.42301959244
 380856.644053849 47886.0574154667 10542.3994063232
 194046.755816791 224478.506489305 243744.244406529
 -184468.091803667 134736.928602689 308664.029613151
 -227429.73520099 73222.6921457536 300616.288483069
 -157025.640768962 -156536.087864013 313520.97431803
 95190.24510361 -367720.881835664 56357.5221165383
 317694.965468675 -168248.330496304 -134975.583721886
 326552.288729305 202011.473575583 3311.68680193696
 -51.0379424219265 249933.112457188 291529.478256644
 -188258.211815029 87292.9622730808 323101.817422617
 -182818.775733753 -87417.7283681416 326177.001038034
 176736.050450345 -300257.783502549 161448.542629997
 345090.850414793 -160907.838282751 49769.192671443
 211436.857513471 308056.246357612 -88610.4077684243
 106810.319539528 281962.292598902 237791.549875589
 16827.3626835264 73144.9628656721 376593.486763243
 -56453.4637052797 -160421.519173256 344287.587086467
 -121776.096966602 -342898.461121009 122667.141355886
 -80183.1627336165 -315690.739626355 -203386.374490032
 155559.338945591 276592.18843647 -216226.856247634
 153993.577461597 335593.803551573 105445.612134252
 56716.598172622 184345.360260275 332048.212827949
 16038.9619509253 -7248.5745096978 383596.41534706
 -36971.7424758764 -190834.400188037 331166.60756056
 -147992.203819762 -338592.954089876 104446.72828414
 -135631.423977715 -283769.547049273 -220306.516011732
 107974.07113288 309079.512149061 -200667.523861462
 135987.656346971 335680.856148272 127599.843796226
 22759.457140366 104964.108487576 368674.03358534
 -195750.58775921 -110205.894714766 311435.977629499
 -358495.059255151 -94179.738887708 100336.779262086
 -326369.835128755 183183.976920197 -85920.6687458251
 -20090.5903272819 380868.103404737 44630.2138598963
 74451.1807146378 210966.621191492 312099.513670307
 42476.0246775535 915.478474990307 381642.436354703
 -33893.1788187304 -168476.63835983 343399.002264905
 -126597.592227977 -340790.61067872 123656.012046741
 -124567.671117042 -288901.092722206 -220170.511050848
 95217.9576624558 327872.700986256 -175752.759541829
 103611.683739461 318439.783334501 187927.441802814
 46167.406192416 95497.6970462378 369059.29125864
 -33122.0418842474 -149906.755719293 351975.702188566
 -127575.981586278 -339205.260042248 126965.193978384
 -128740.448109926 -290220.363439719 -215995.457510969
 90791.3535772173 324098.282560104 -184860.037209798
 105398.855330001 327892.212273592 169805.118961281
 42360.0515807639 116914.202736755 363307.989491704
 -29334.4948563792 -122059.974013335 362900.606441192
 -102697.879216564 -329340.849473124 168652.751156752
 -87502.0635664847 -326557.800135053 -182097.204927921
 140645.455301939 278417.661374901 -223960.848671015
 142874.364253755 339610.304969125 108202.388133825
 53088.1894162888 173290.366779541 338538.170559706
 11913.9092210198 -31045.334937915 382557.506717181
 -57176.8271775891 -226343.90723172 304885.627888529
 -208257.601997798 -321793.826190054 23097.7192833377
 -284684.882567334 -52028.9609466008 -252395.532568309
 1107.98079742534 375555.844232937 -80078.587906124
 60755.2143331797 278036.856098597 257798.973198377
 -3132.01997150981 31951.363053898 382655.590381084
 -64778.2569293422 -231313.839293171 299589.194031843
 -20118.9835238888 -383070.680326802 17552.2185471398
 199727.835338195 -206164.393988071 -255070.645983913
 -147028.459418303 354690.661994452 -5759.02899956038
 98032.7452854917 237952.722768654 284998.390484532
 201459.846928889 -21446.9046936492 326205.395961579
 149393.054599452 -133914.000615968 327421.373273755
 -185567.530645266 -233803.325671651 241571.307226447
 -372868.840847994 -91361.7934304392 -8823.27750030403
 -291304.381474388 244744.759427285 -51939.9659867507
 -79966.3214719075 350798.937669617 134169.641723155
 195665.925318324 67008.1967410439 323544.042193389
 250380.322332442 -102690.45404418 272434.147707116
 207590.458484383 -128664.671680998 296323.478326414
 -192611.003667729 -219815.589048632 249074.503065474
 -379091.500489492 -59538.6288545672 14169.895226988
 -289416.911438922 252067.935256669 -12474.2690605403
 -54530.046493925 331235.254559342 186455.571561641
 216527.332121936 41468.3414966048 314407.84197866
 155742.232413452 -53781.7127057459 346854.269717573
 -206169.007749019 -52573.6480145907 319666.000347586
 -337207.716540418 83873.5797943444 163438.607795339
 -224890.437942121 242089.786670349 195634.41954857
 212950.742128026 -13156.8630596655 319272.420327143
 270259.015664576 -119422.446192213 245263.824885535
 227187.291188047 -117612.602135518 286372.503117094
 -183865.097002105 -231797.18972898 244784.985115823
 -380882.420298684 -48493.8656377932 5738.19683530248
 -262580.405415136 280050.534451497 8901.05867038944
 38893.9894087448 283609.806578408 255946.742898655
 232069.474991889 -29938.5561745901 304472.398800236
 197632.157924817 -123122.940292951 305349.425621858
 -175985.010682878 -236299.890349214 246267.411234001
 -380203.4314419 -53187.9178644937 8508.59054392001
 -271383.91972377 271635.861087058 4552.70105043959
 133.477614743464 300817.692427019 238672.784595584
 224596.678321964 -12641.8558649637 311211.367991322
 200015.994586451 -112632.388279216 307836.883787685
 -102005.699578803 -254474.287141736 268874.830426993
 -369815.072933641 -103291.933015413 4856.78958010561
 -297343.842042067 239497.459214657 -41031.7758497703
 -82983.591171266 343632.369840233 149955.053246983
 207076.33737528 40064.4634461182 320889.746280578
 252445.896165224 -108265.334200341 268338.75404016
 192075.625104835 -153342.892378983 295040.52534768
 -301993.123887297 -133472.805426777 196064.181676045
 -373413.434509224 64109.9450119408 62516.572831459
 -235077.925356557 281929.372449484 112739.513748716
 139139.493696395 163182.036180417 318540.145604795
 175677.120868939 -50058.2832968582 337768.733716683
 13196.4050705113 -224151.524063755 311509.147783995
 -286967.802102352 -250954.232176928 46124.3309873819
 -352090.584632935 44531.6693520003 -146646.345462688
 -252157.186865891 100766.675243224 271512.118094767
 157835.530769047 -229950.000539441 263944.961078564
 312695.527621397 -200291.558549871 97779.336156673
 370437.342903895 29009.5198293413 96905.2255638111
 174970.161030033 177093.486767673 292368.499831279
 -236406.264328234 99468.9429627345 285786.646945314
 -263733.205595305 110164.211499622 256446.1790924
 -203933.212575212 -33849.6055587556 323606.935976765
 79140.6057558816 -342651.406875063 154216.658915735
 292501.811744114 -246483.660434802 -33830.3896677533
 375146.197476693 81821.20728421 5159.51134626198
 161989.173756739 235480.677328586 256445.62423734
 -198474.969274996 123268.435790209 304743.464752117
 -234712.483614487 56650.9181671341 298591.23146258
 -122888.876704094 -209304.299317485 297566.85680637
 254866.67875779 -282698.137546239 50800.9752550204
 380663.305553849 18394.8950304858 47043.3379091522
 211937.590750603 196133.433405584 253120.78920422
 -94861.876086394 118279.442620732 352799.090019658
 -148695.164664705 -93098.6642275696 341582.181508899
 48244.9767189066 -356954.954545427 133084.87008997
 274870.775066419 -258346.516127818 -71827.1161818815
 367388.154592395 108893.697303988 -24982.124662688
 140325.451775988 257972.063390191 247417.020623223
 -192881.474978066 121211.005451998 309128.82228547
 -224465.762785483 18423.9631270391 311017.16820752
 -21467.4738302241 -295354.011596603 244460.948621948
 264165.576953908 -278668.794894887 -4031.21624823116
 378906.823878389 62233.2941026089 -3554.70442224794
 162707.89431282 246333.294142532 245564.755869357
 -190801.587730993 124944.175763538 308933.175722683
 -224938.922992111 34474.1173787977 309305.700164258
 -51783.0876279304 -268268.561248785 269826.77939972
 255568.243949649 -285665.909561319 23148.6673265881
 383253.526145146 21996.9353656261 9427.06379699751
 231371.962894147 211577.764619245 221715.728592342
 -197065.986088696 140499.404280979 298129.023282839
 -244535.91600879 98608.0350067019 279167.765355993
 -189332.427924028 -79542.9849919713 324472.102460227
 95439.2278040364 -350691.316457407 123947.385440516
 308973.232160788 -220376.315403502 -58530.5169744143
 359738.310182395 133843.341051211 11415.2636134257
 29078.0630060303 256681.905832708 284121.216155898
 -191704.169014966 92918.277326895 319486.627765363
 -164289.723225336 -97452.6582230576 333118.396741763
 237990.123047952 -249878.473930389 168456.076167767
 360800.596536598 -73749.3439105965 108811.597780711
 302186.033583354 71891.0954000765 225768.180905409
 -250342.709641506 68586.9553703494 282984.729768895
 -320049.307202349 89106.1005350346 192573.476384305
 -113424.671209674 -190141.188482214 313746.987879643
 34012.3329121786 -374736.546206788 76626.9022398726
 198280.993801588 -274569.093390934 -180976.408549664
 287444.038494578 213873.705271164 -138166.431985163
 189649.079368348 308892.286425347 126786.363942104
 19317.0582099766 190908.035482481 332621.366196358
 -25632.3112987944 10328.0048447371 383004.330175794
 -45300.9867825966 -175297.608556345 338636.337434348
 -137058.81439056 -337969.323271934 120198.244267397
 -126323.907179243 -295371.556886201 -210366.142374651
 109194.467936515 304512.569907155 -206892.877935906
 131365.892965736 338468.064355491 125053.474868801
 35099.6374080116 160073.027375245 347276.030501315
 -18596.7964503355 -69555.4066516891 377189.878664981
 -62192.979940334 -288336.421583294 245866.104281745
 -56367.4159806732 -355631.626684609 -133434.85495672
 214067.238051755 214072.878128606 -236228.74601248
 178919.01018259 326570.845659155 93784.1700968055
 83844.3575545265 157787.692473775 339895.81905353
 -11900.4058661893 -128428.583852548 361691.137837035
 -144234.708503057 -315751.232603725 164175.235563305
 -199836.007030734 -265839.820139937 -191965.518575546
 31070.8125306674 330343.304407449 -193297.454307737
 94555.2721857001 341156.935643972 148752.296667659
 39016.4080430473 129709.81909151 359317.523556348
 -29794.7690515152 -109778.803071783 366765.437484632
 -104683.871517833 -323431.566972318 178575.778116376
 -112557.85656053 -317646.294907688 -184085.741593196
 96890.8719227271 305498.947565621 -211514.897759831
 114163.979402372 339909.84547234 137418.640504062
 45222.4994782831 138833.022294401 355156.750550428
 -22076.5350076843 -94902.9360680853 371432.442481417
 -87984.4571158321 -314191.444601328 202480.792781348
 -78939.0143460619 -339710.625136075 -160690.146504786
 152176.362570505 259310.245438507 -238865.132000112
 145828.340728711 343642.533189224 89999.4690184551
 46046.6395943219 188013.457685258 331642.347584418
 3370.54992614275 -5215.77920449105 383949.7819253
 -42630.1695478109 -196933.527987869 326888.137133448
 -146737.769308304 -345666.856800089 80239.9599225355
 -155722.889074215 -247341.150675074 -249055.690561589
 70807.2455094722 347482.189439681 -147303.978240803
 66066.0988155742 310810.717345082 215610.687515083
 -42874.5704927143 36360.1646468155 379862.751045587
 -38105.2731913469 -282647.80303165 257126.831731724
 102612.370262169 -367051.056274653 -46906.5406616276
 333290.788444792 7359.33543722414 -190575.681868835
 242464.550713673 295626.222942401 35666.201872733
 23614.3542363928 231974.011363798 305100.67244401
 -129729.022696565 44116.873372493 358720.060986321
 -70848.9931504415 -237681.545705303 293161.905780248
 -200458.584191315 -325425.083065163 37025.2796889529
 -320421.206216141 -82659.1576387512 -194817.130318268
 -148618.965967855 337891.189962431 -105820.351069244
 -22147.8474075662 357518.663147996 138368.632124773
 135533.730738874 109326.640796445 342248.876468817
 221818.936504493 -107631.937808949 294393.826992867
 200446.781368746 -138137.419163001 296976.667881327
 -160728.637371934 -237035.111212569 255805.90528955
 -376743.397808417 -73449.6170759463 11205.621766147
 -293572.797582443 246432.642197997 -23280.1498906568
 -80897.8522005404 339240.539688301 160709.034411042
 190702.120948186 40618.9169239706 330815.363388381
 210404.635533874 -127836.972746593 294692.378158724
 81061.2538633629 -253355.201477187 276940.814988606
 -353947.060798228 -146713.048245295 25549.1609817041
 -308757.163173968 216014.239844956 -73911.1789445251
 -81190.6466318375 357684.868409478 113690.869512018
 193836.495607097 84555.001373179 320521.239098974
 194374.049059574 -115282.291847502 310458.889772179
 -8918.06475918916 -245847.108933975 294848.549512724
 -374057.936921637 -63274.8646522719 59438.6349874023
 -295116.941184509 244704.78605522 21944.4459389604
 -47179.387167584 308020.730772724 224395.487567661
 226225.275644904 -9134.02907188928 310152.694929935
 209294.702359361 -109739.909027924 302669.588711601
 -90904.3827292571 -256742.634514641 270694.685620339
 -374074.070385788 -85430.6547363264 15039.7172955747
 -289436.37463467 252186.351203111 -9199.4187425266
 -45648.4370731213 320155.108708252 207057.785559463
 227575.805467958 1669.5599637792 309293.49384547
 216308.61158317 -104168.092270915 299692.497583105
 -44851.3338738612 -260831.787620343 278228.568656261
 -364284.352573562 -121027.254668745 10262.2657053642
 -304907.587966323 228156.661483936 -49314.3044264386
 -91969.758943257 346742.389135509 136993.718894402
 198024.562456959 59283.1765541056 323616.714094598
 249242.188371013 -105424.032419353 272433.670687879
 199068.466733511 -147277.009158151 293491.444723349
 -244619.813927995 -212239.643371399 206328.573918918
 -383977.20994079 -3675.61150415083 -1998.0305695714
 -237282.203091319 299636.352418837 37029.8852991009
 -4541.87331102583 256212.813502795 285990.149452404
 27320.364576448 -60470.9135665287 378223.302153423
 -117070.415169314 -296571.588089009 213999.558481899
 -239148.502229889 -284354.514768325 -96987.1321984081
 -211793.168863992 233379.17102498 -219394.202645015
 -17935.7230372003 380290.131753622 50137.0674246648
 71767.5426059847 225373.594872 302509.772673165
 42271.7787015589 -18854.4150656488 381200.220039206
 94919.9627901999 -187519.985298193 321375.879271722
 -326126.57591629 -141202.165338228 145462.727132802
 -366338.715241713 88624.8546220168 73468.2302650453
 -254100.592956247 239303.816114208 160070.522746885
 -143224.622445898 124982.689732806 333649.56884789
 61948.2948254536 -282487.924420236 252624.189904621
 256792.452069797 -285295.614436963 10956.6848552216
 382169.27715453 37449.0528856223 460.474922302963
 199501.107687762 226517.786589009 237371.018429319
 -196936.726648925 137099.480577962 299792.691909025
 -240820.892309487 99214.5510579301 282166.211098416
 -182604.544003968 -80622.3784597578 328042.089678435
 110927.636658389 -342707.669388503 133050.79018061
 321567.435897871 -208506.644071231 -23986.7369231657
 361818.354506306 113985.778901167 59587.9228589413
 -116595.71222714 240517.536101803 275704.107183342
 -233520.254160399 128418.120032359 276465.327562458
 -207030.615894449 -35754.4662694974 321427.973617961
 123598.239418117 -331010.233570514 150371.873980261
 333737.819868306 -189688.321336028 9664.79892546567
 352159.572903175 106428.371589977 110057.425616624
 -101521.877556844 211567.79196265 303954.565324132
 -203213.269357003 62061.357513573 319857.398008566
 -92578.6595195602 -239574.198382533 285463.474495299
 234048.311832068 -304060.391596277 14988.8622275833
 382446.942979557 27168.1326716685 -21265.6618219696
 222726.756643869 235447.165292958 205945.197153062
 -175351.943221203 144049.341066517 309770.049144281
 -222335.528637465 50569.3285977588 308975.17005525
 -108391.442061318 -227832.732180018 289481.504478708
 226871.058298672 -309152.169468154 20259.7882411052
 382851.719438748 11723.508093858 -27260.2325882831
 249107.940170829 225211.98345215 186227.808485723
 -185811.935613662 157035.127709696 297102.496200728
 -242853.119388103 102100.188026874 279381.305760326
 -194777.837047162 -62757.1774273956 324929.424454874
 84748.4087979918 -348727.83203262 136611.150247838
 296817.455821866 -237254.151254023 -55370.2594554857
 365846.65173878 116492.260609793 -6463.79374237012
 72931.3244011682 272178.811172561 260874.906171106
 -219297.757903778 141022.207645062 281917.062855885
 -183386.628810967 121117.599110305 314890.253198006
 168915.697217242 -30361.2439215411 343513.72913051
 199292.708220451 -110980.956771899 308903.939249975
 -66252.2218605017 -232610.144553883 298260.22823898
 -367030.210225501 -77223.0242837817 82349.4341346122
 -325001.653230528 191552.490711929 71676.8351664612
 -135022.215432694 272569.821449281 234372.980044105
 204911.85172816 30895.7481397656 323284.063585294
 233984.123897188 -73299.604363113 295524.276099742
 308700.023203787 174152.964591603 147753.309939024
 -108098.261423645 201821.328527482 308283.825765458
 -210341.724118231 112067.708652629 301086.678171452
 -97073.0485162185 49957.1307728863 368153.647729733
 20992.3556492085 -130852.339984669 360406.695449507
 -48960.76348033 -321676.341485741 203919.530618751
 -99031.6495722057 -333362.63935738 -162843.738177707
 125175.311886129 276351.533897314 -235408.094607666
 140611.606393633 343044.538360629 100024.101337354
 44468.0220164291 185244.551622637 333411.234231954
 2909.05779134548 -6884.39326050978 383927.262007013
 -40449.1401888829 -199279.404207887 325741.594084221
 -131104.710037279 -351665.439676586 81234.0663952915
 -92117.7142012762 -274614.053995671 -252106.025470227
 122575.082034223 335572.497740062 -140792.21578198
 61013.6103082051 291714.317541228 242148.913478079
 -11229.7398111402 73226.8875713566 376786.034614323
 -59495.4244941084 -173368.749004902 337430.839332657
 -112180.000809371 -357074.269472289 85846.4530382028
 -2775.6784455284 -290312.469316372 -251330.391653293
 175640.254882664 319809.022568143 -119702.506025403
 79863.6682381413 260489.081998043 270597.916945724
 -18027.4213164548 -15912.0824729174 383246.419046616
 -93695.1084055329 -289133.995942596 234688.642782607
 -126705.049492252 -330380.457966294 -149166.294541186
 71706.0620912114 292095.918161049 -238734.612599483
 111967.355539981 352297.440846405 103951.067654246
 59381.1212508198 155386.601104887 346099.532845778
 8436.27904331691 -71356.0682860896 377217.630439849
 -69379.8828259365 -287269.295080112 245191.321141746
 -128853.17004037 -333691.667069005 -139652.18186357
 60079.4585300533 283148.329519846 -252336.050046077
 112487.599033325 358138.910103249 80864.4615005567
 45440.1569437629 190868.09024196 330091.751281842
 11438.8704029981 -1149.71353993942 383827.865589094
 -37159.9784898486 -186587.605660465 333556.893816525
 -149364.708483211 -340281.814393546 96718.512461483
 -166936.594699027 -257251.36633172 -231105.83694653
 52246.8264036769 339567.200156155 -171523.717627778
 66901.0900152213 336041.148769623 173368.36645815
 -29599.1228898555 97891.6954373503 370131.203613735
 65226.59580679 -208119.283421514 316050.39956876
 277928.073159672 -238581.636505133 115285.683726493
 376818.761663109 -12334.1257618114 72879.9711880612
 253849.960784241 177798.259377553 226724.450318336
 -164812.088485313 138825.047296016 317837.351065554
 -208914.028652812 28836.5134151407 320904.010766632
 -11000.0213868379 -227501.824257585 309156.787874632
 266038.933185097 -258864.767222064 98327.6071141891
 378752.993302469 -41879.2757895106 47416.2031774576
 154456.80895053 344966.788339516 67801.2471237713
 29281.6912802811 231642.010060463 304861.545182259
 -4623.01361512888 -42974.8169689585 381559.684520782
 176911.509652297 -212086.489090609 266791.377105341
 268405.751353089 -159214.516195222 223752.297135259
 114015.592191405 -256972.171921404 261575.51031249
 -366637.312305279 -108323.496926329 36043.0470300805
 -309457.727963257 224795.693401753 -34041.3106657799
 -93645.7610776063 345007.572563209 140200.735754982
 196088.148723591 59625.0795417621 324731.100789243
 245788.219589645 -104182.275132651 276025.731878637
 192415.973963342 -149950.455474143 296558.51676665
 -236894.997902801 -220892.04290554 206260.673298739
 -383228.048101687 -18335.3653411373 -16002.4225034178
 -232709.708174298 304948.266726064 17571.1793059555
 78685.1119518201 243297.793954799 286480.080658076
 202055.614648944 -37850.8871516277 324340.621770805
 144557.192503532 -153835.278192387 320770.829844248
 -226099.310338042 -233697.106819823 204256.613427095
 -380142.294928046 -29473.0945090618 -45597.941915162
 -207957.772286714 322734.461400869 7213.34664618648
 137954.052311153 197977.887277503 298712.965235973
 172589.487842168 -60324.4366638565 337683.033372372
 -2182.1131551616 -239657.75309062 300025.665178387
 -366345.324546117 -106500.215097493 43644.0988839014
 -310143.773627001 226263.47873898 -8466.27836411893
 -89978.5952329563 324408.948948567 184712.442033529
 237795.878362482 -8977.15448935797 301377.721358248
 256447.280501385 -108610.966278843 264375.585724968
 97195.9687982177 -240899.006048039 282801.365863821
 -364272.485542092 -107808.922018252 56024.9284716054
 -320236.169591187 211741.463188139 -8387.39843520034
 -115229.023358983 330613.272449185 157712.194380066
 204660.035158696 35093.2887336983 323015.063262837
 259313.782137175 -108365.268138359 261666.449998878
 216056.753756998 -129026.922394239 290047.465862846
 -216700.510645288 -214678.072691113 233259.970401483
 -383062.722790331 -22536.7243618236 14527.4382978175
 -263762.879419403 277308.62347256 31385.8373815212
 -93393.2119189036 274946.518619443 251272.998681751
 3712.88298312981 -128290.949194633 361916.629701778
 54374.3674099557 -354476.972275964 137278.928808586
 183738.864049063 -306271.640602729 -141045.070812393
 300647.908416477 185940.650145048 -149976.364099263
 174988.306066876 322252.374304849 113967.100492787
 16564.0883169441 172745.287167231 342550.283520156
 -68075.1100390487 -133711.473109269 353472.801431907
 -829.947012713384 -352808.154142444 151597.221473737
 122810.117500548 -335772.24214378 -140109.515898243
 286079.505530705 168996.55978768 -192495.920204134
 -33638.1161367942 352476.732291446 148608.984707897
 23591.6889352705 132276.606541313 359725.355757828
 14234.5264708407 -238203.47731544 300852.923620468
 98655.434740848 -369598.846984266 33463.37556188
 328927.02588711 -136695.362329408 -143448.212113963
 312930.414515581 219281.626561495 38027.936095088
 -115568.528467405 238106.750297397 278217.703769353
 -222824.896770047 122459.112839391 287765.236020627
 -194626.818903003 -58780.8625725635 325762.507908634
 88121.5360801967 -346399.179765329 140350.287270009
 301003.30746158 -234698.595659816 -42066.3534490441
 369403.086596311 104538.280885786 8313.08862957638
 89832.0023885275 256442.861173808 271336.083667209
 -211800.645199148 114333.067527487 299206.344122212
 -229015.544337474 21029.9788851036 307515.236110184
 48513.9934546851 -296608.250869414 239010.330227096
 294030.232390526 -242511.817384135 46800.0092886423
 374910.168700228 38873.2187347653 73397.8083485176
 130268.602968604 202136.049824917 299377.868991325
 -230394.57943973 89988.7896449768 293728.370272641
 -246978.665083076 -12997.5702672571 293749.21644309
 189811.421840732 -276191.301966657 187472.634954444
 349021.11412498 -137584.654527841 81919.0132595137
 335758.656720109 89368.4626603583 163509.639835798
 -139664.959477552 176147.524800847 311322.579651186
 -217018.150799644 69516.9086219659 309073.650832853
 -155560.771161827 -177307.909656814 303016.091402204
 139012.818396373 -357354.091512691 20724.1308777036
 355750.735971756 -66400.2565394677 -128407.241957167
 287516.828671427 243284.881817957 74850.1136241486
 -118344.090875195 211084.341683265 298151.097350096
 -207473.57490547 97141.4489967236 308178.932769197
 -173060.22917818 -94232.4156649023 329585.2073664
 90134.6758105317 -353423.874171647 120097.066500535
 295826.588103855 -234403.597499029 -70693.5870524695
 364787.069525769 118632.119058025 -17686.5551932538
 118088.850931617 267230.997265111 249195.941753362
 -196901.622042074 147389.393807428 294893.400791336
 -191155.515180112 139235.408126857 302537.716888281
 -66583.1645498724 11427.7114832007 378010.700389263
 -45547.0440622515 -254174.02035688 284213.008415892
 -152262.470717775 -349282.574929165 47684.6187126516
 -287643.886383828 -150092.423918422 -205400.240769821
 -111974.490971482 343402.550746996 -130354.905976469
 5700.71614413927 347822.375034677 162613.33666302
 69670.8783140253 122271.452110968 357283.725788942
 -19946.7239716257 -181071.234867953 338040.435608219
 -179359.133614142 -323125.080069918 104290.382197944
 -303642.77823553 -173940.999173024 -158118.917375813
 -166874.432849967 317549.589274697 -137007.963317732
 -9588.51334710704 217258.656260574 316484.970720004
 134410.645025947 -42207.8349189883 357223.007622914
 3531.21420493978 -250882.358306389 290691.542389633
 -227503.697551034 -309317.04096704 4586.47664356887
 -290522.369196686 10505.4137804617 -250883.218405787
 13150.2991400502 379832.978965188 -54863.2638744598
 35400.5082574105 266400.704756363 274287.200795863
 -8283.72458424916 51447.3270956767 380447.831432541
 -59384.8386487048 -176331.53786283 335911.639711393
 -145748.010399238 -340747.316442372 100522.553698092
 -135687.275363454 -278001.294783083 -227508.776541415
 94778.6033863274 324556.038397818 -182034.047034206
 102800.038329733 330200.322017823 166900.867159915
 13852.2977117794 127345.269825668 362004.552597246
 -56281.1388755795 -120723.667740857 360158.617075953
 -83980.2226653269 -340114.046585059 157244.260679423
 23384.6556716734 -345561.937192335 -165819.496570813
 265987.299117953 201275.929806512 -190249.19655142
 190876.827039488 303080.311801708 138435.405505661
 -9908.22812577537 135868.005956069 359023.274973823
 -103805.985194013 -184615.3825218 320308.410714158
 -17444.992910488 -382938.267585657 22582.1930035387
 241961.336612193 -174327.358939689 -241910.486564667
 238204.05137501 297693.076714752 -45756.5512755978
 101399.543491072 222252.44961559 296273.490578674
 28501.8557626141 -9220.80279263643 382829.754608947
 -64944.6297461594 -238272.245926579 294048.519615791
 -226965.690665249 -305820.708920501 -49155.5618034043
 -242300.155778251 165858.278623372 -247462.453559985
 8612.27612225032 383564.42179375 16129.5701746993
 69237.5541549373 202801.544923681 318643.52256277
 55880.1599491568 -5793.12067269742 379868.19750662
 -23930.7995064584 -195265.637455969 329779.695651348
 -160798.585371537 -340320.890284073 76036.2188615946
 -200913.652478098 -229708.477859248 -233074.49334386
 26822.5186478978 340825.09541228 -174856.532135901
 76930.7796204992 344571.418296145 151023.815474134
 46130.3034879837 138027.38520581 355353.95879792
 118154.310183006 -49117.2636246111 362053.937140875
 185880.767233875 -110019.076407543 317490.382844862
 57989.0064129469 -222750.4909142 307368.661272945
 -321170.789664547 -170114.005346968 123961.885477203
 -377143.026374469 57964.4013454534 43119.204929703
 -258038.409931191 265295.27602156 102423.608220112
 31378.9079656617 217851.07319493 314662.158580754
 212132.791924167 -34785.341901906 318191.229576218
 162852.278421461 -142770.897412567 317098.732676353
 -264782.082342484 -170604.65146541 219637.204882834
 -376469.101083017 14817.435280092 74212.2600482265
 -277325.793268651 242019.430403048 109421.203134027
 179898.623884158 -233335.031503785 246266.620145146
 325563.342518104 -130434.78729882 156369.038721709
 277288.106424103 -72405.0328095274 255587.200891567
 -306184.577384639 -72586.5377376382 220086.79903859
 -369089.436964918 70827.3870721933 78819.215686568
 -230352.668687798 286841.580215767 110070.685869268